<?xml version="1.0" encoding="UTF-8"?>

<!-- generated on 2023-06-05 14:55:28 by Eclipse SUMO GUI Version v1_17_0+0611-19e794c0a97
<configuration xmlns:xsi="http://www.w3.org/2001/XMLSchema-instance" xsi:noNamespaceSchemaLocation="http://sumo.dlr.de/xsd/sumoConfiguration.xsd">

    <input>
        <net-file value="C:\Users\hart_pn\sumo-scenarios\Doerpfeldstr\net.net.xml.gz"/>
        <route-files value="C:\Users\hart_pn\sumo-scenarios\Doerpfeldstr\flows_2.rou.xml"/>
        <additional-files value="C:\Users\hart_pn\sumo-scenarios\Doerpfeldstr\additional_flows.add.xml"/>
    </input>

    <time>
        <begin value="50300"/>
        <end value="54100"/>
    </time>

</configuration>
-->

<meandata xmlns:xsi="http://www.w3.org/2001/XMLSchema-instance" xsi:noNamespaceSchemaLocation="http://sumo.dlr.de/xsd/meandata_file.xsd">
    <interval begin="50300.00" end="54100.00" id="sim_bike">
        <edge id="178028204#9" sampledSeconds="2497.78" traveltime="11.34" overlapTraveltime="12.07" density="10.88" laneDensity="3.63" occupancy="1.71" waitingTime="510.00" timeLoss="881.22" speed="5.42" speedRelative="0.65" departed="0" arrived="0" entered="207" left="207" laneChangedFrom="17" laneChangedTo="17"/>
        <edge id="-178028204#9" sampledSeconds="7431.75" traveltime="14.67" overlapTraveltime="15.76" density="32.38" laneDensity="10.79" occupancy="5.11" waitingTime="2249.00" timeLoss="3734.07" speed="4.15" speedRelative="0.50" departed="0" arrived="0" entered="474" left="471" laneChangedFrom="84" laneChangedTo="84"/>
        <edge id="-147053824#2" sampledSeconds="1183.75" traveltime="7.67" overlapTraveltime="8.05" density="3.10" laneDensity="1.03" occupancy="0.49" waitingTime="0.00" timeLoss="68.94" speed="13.11" speedRelative="0.94" departed="0" arrived="0" entered="148" left="147" laneChangedFrom="0" laneChangedTo="0"/>
        <edge id="147053824#2" sampledSeconds="45054.81" traveltime="97.74" overlapTraveltime="98.51" density="117.93" laneDensity="39.31" occupancy="19.49" waitingTime="36569.00" timeLoss="41558.31" speed="1.07" speedRelative="0.08" departed="0" arrived="0" entered="470" left="444" laneChangedFrom="49" laneChangedTo="49"/>
    </interval>
</meandata>
